s 0.000000000 _1_ AGT  --- 1 security 40 [0 0 0 0] [energy 20.000000 ei 0.000 es 0.000 et 0.000 er 0.000] ------- [1:0 6:1 32 0] [0 0] 0 0
r 0.000000000 _1_ RTR  --- 1 security 40 [0 0 0 0] [energy 20.000000 ei 0.000 es 0.000 et 0.000 er 0.000] ------- [1:0 6:1 32 0] [0 0] 0 0
s 0.000000000 _1_ RTR  --- 0 AODV 48 [0 0 0 0] [energy 20.000000 ei 0.000 es 0.000 et 0.000 er 0.000] ------- [1:255 -1:255 30 0] [0x2 1 1 [6 0] [1 4]] (REQUEST)
r 0.001083790 _1_ MAC  --- 0 AODV 48 [0 ffffffff 0 800] [energy 19.999151 ei 0.000 es 0.000 et 0.000 er 0.001] ------- [0:255 -1:255 30 0] [0x2 1 1 [6 0] [0 4]] (REQUEST)
r 0.001108790 _1_ RTR  --- 0 AODV 48 [0 ffffffff 0 800] [energy 19.999151 ei 0.000 es 0.000 et 0.000 er 0.001] ------- [0:255 -1:255 30 0] [0x2 1 1 [6 0] [0 4]] (REQUEST)
s 0.001173790 _1_ MAC  --- 0 AODV 106 [0 ffffffff 1 800] [energy 19.999151 ei 0.000 es 0.000 et 0.000 er 0.001] ------- [1:255 -1:255 30 0] [0x2 1 1 [6 0] [1 4]] (REQUEST)
s 0.001536736 _1_ RTR  --- 0 AODV 48 [0 ffffffff 0 800] [energy 19.994910 ei 0.000 es 0.000 et 0.004 er 0.001] ------- [1:255 -1:255 29 0] [0x2 2 1 [6 0] [0 4]] (REQUEST)
D 0.002498521 _1_ MAC  COL 0 AODV 106 [0 ffffffff 5 800] [energy 19.993717 ei 0.000 es 0.000 et 0.004 er 0.002] ------- [5:255 -1:255 30 0] [0x2 1 1 [6 0] [5 4]] (REQUEST)
D 0.003616521 _1_ MAC  COL 0 AODV 106 [0 ffffffff 5 800] [energy 19.992599 ei 0.000 es 0.000 et 0.004 er 0.003] ------- [5:255 -1:255 29 0] [0x2 2 1 [6 0] [1 4]] (REQUEST)
D 0.004920018 _1_ MAC  COL 0 ARP 86 [0 ffffffff 6 806] [energy 19.991623 ei 0.000 es 0.000 et 0.004 er 0.004] ------- [REQUEST 6/6 0/1]
r 0.007050314 _1_ MAC  --- 0 AODV 48 [0 ffffffff 0 800] [energy 19.990773 ei 0.000 es 0.000 et 0.004 er 0.005] ------- [0:255 -1:255 29 0] [0x2 2 1 [6 0] [1 4]] (REQUEST)
r 0.007075314 _1_ RTR  --- 0 AODV 48 [0 ffffffff 0 800] [energy 19.990773 ei 0.000 es 0.000 et 0.004 er 0.005] ------- [0:255 -1:255 29 0] [0x2 2 1 [6 0] [1 4]] (REQUEST)
s 0.010659896 _1_ MAC  --- 0 AODV 106 [0 ffffffff 1 800] [energy 19.988226 ei 0.000 es 0.000 et 0.004 er 0.008] ------- [1:255 -1:255 29 0] [0x2 2 1 [6 0] [0 4]] (REQUEST)
D 0.012109502 _1_ MAC  COL 0 ARP 86 [0 ffffffff 6 806] [energy 19.983133 ei 0.000 es 0.000 et 0.008 er 0.008] ------- [REQUEST 6/6 0/1]
r 0.016019103 _1_ MAC  --- 0 AODV 48 [0 ffffffff 5 800] [energy 19.981430 ei 0.000 es 0.000 et 0.008 er 0.010] ------- [5:255 -1:255 28 0] [0x2 3 1 [6 0] [0 4]] (REQUEST)
r 0.016044103 _1_ RTR  --- 0 AODV 48 [0 ffffffff 5 800] [energy 19.981430 ei 0.000 es 0.000 et 0.008 er 0.010] ------- [5:255 -1:255 28 0] [0x2 3 1 [6 0] [0 4]] (REQUEST)
r 0.018521385 _1_ MAC  --- 0 AODV 48 [0 ffffffff 0 800] [energy 19.979730 ei 0.000 es 0.000 et 0.008 er 0.012] ------- [0:255 -1:255 29 0] [0x2 2 1 [6 0] [3 4]] (REQUEST)
r 0.018546385 _1_ RTR  --- 0 AODV 48 [0 ffffffff 0 800] [energy 19.979730 ei 0.000 es 0.000 et 0.008 er 0.012] ------- [0:255 -1:255 29 0] [0x2 2 1 [6 0] [3 4]] (REQUEST)
s 0.021116323 _1_ RTR  --- 0 AODV 48 [0 ffffffff 0 800] [energy 19.979730 ei 0.000 es 0.000 et 0.008 er 0.012] ------- [1:255 -1:255 28 0] [0x2 3 1 [6 0] [3 4]] (REQUEST)
s 0.021411323 _1_ MAC  --- 0 AODV 106 [0 ffffffff 1 800] [energy 19.979730 ei 0.000 es 0.000 et 0.008 er 0.012] ------- [1:255 -1:255 28 0] [0x2 3 1 [6 0] [3 4]] (REQUEST)
r 0.023248928 _1_ MAC  --- 0 ARP 28 [0 ffffffff 6 806] [energy 19.974786 ei 0.000 es 0.000 et 0.013 er 0.012] ------- [REQUEST 6/6 0/1]
s 0.023378928 _1_ MAC  --- 0 RTS 44 [36b 6 1 0] [energy 19.974786 ei 0.000 es 0.000 et 0.013 er 0.012] 
r 0.024046534 _1_ MAC  --- 0 CTS 38 [231 1 0 0] [energy 19.972721 ei 0.000 es 0.000 et 0.014 er 0.013] 
s 0.024056534 _1_ MAC  --- 0 ARP 86 [13a 6 1 806] [energy 19.972721 ei 0.000 es 0.000 et 0.014 er 0.013] ------- [REPLY 1/1 6/6]
r 0.024609231 _1_ MAC  --- 0 ACK 38 [0 1 0 0] [energy 19.971232 ei 0.000 es 0.000 et 0.016 er 0.013] 
D 0.025010277 _1_ MAC  COL 0 RTS 44 [377 1 6 0] [energy 19.970032 ei 0.000 es 0.000 et 0.016 er 0.014] 
D 0.026011231 _1_ MAC  COL 0 RTS 44 [377 1 6 0] [energy 19.969879 ei 0.000 es 0.000 et 0.016 er 0.014] 
r 0.028191231 _1_ MAC  --- 0 RTS 44 [377 1 6 0] [energy 19.968675 ei 0.000 es 0.000 et 0.016 er 0.016] 
s 0.028201231 _1_ MAC  --- 0 CTS 38 [23d 6 0 0] [energy 19.968675 ei 0.000 es 0.000 et 0.016 er 0.016] 
r 0.028765564 _1_ MAC  --- 0 AODV 44 [13a 1 6 800] [energy 19.966906 ei 0.000 es 0.000 et 0.017 er 0.016] ------- [6:255 3:255 30 1] [0x4 1 [6 8] 10.000000] (REPLY)
s 0.028775564 _1_ MAC  --- 0 ACK 38 [0 6 0 0] [energy 19.966906 ei 0.000 es 0.000 et 0.017 er 0.016] 
r 0.028790564 _1_ RTR  --- 0 AODV 44 [13a 1 6 800] [energy 19.965386 ei 0.000 es 0.000 et 0.019 er 0.016] ------- [6:255 3:255 30 1] [0x4 1 [6 8] 10.000000] (REPLY)
s 0.028790564 _1_ RTR  --- 1 security 40 [0 0 0 0] [energy 19.965386 ei 0.000 es 0.000 et 0.019 er 0.016] ------- [1:0 6:1 30 6] [0 0] 0 0
f 0.028790564 _1_ RTR  --- 0 AODV 44 [13a 1 6 800] [energy 19.965386 ei 0.000 es 0.000 et 0.019 er 0.016] ------- [6:255 3:255 29 0] [0x4 2 [6 8] 10.000000] (REPLY)
s 0.029229564 _1_ MAC  --- 0 ARP 86 [0 ffffffff 1 806] [energy 19.965386 ei 0.000 es 0.000 et 0.019 er 0.016] ------- [REQUEST 1/1 0/0]
s 0.030007564 _1_ MAC  --- 0 RTS 44 [374 6 1 0] [energy 19.961945 ei 0.000 es 0.000 et 0.022 er 0.016] 
r 0.030675170 _1_ MAC  --- 0 CTS 38 [23a 1 0 0] [energy 19.959880 ei 0.000 es 0.000 et 0.024 er 0.016] 
s 0.030685170 _1_ MAC  --- 1 security 98 [13a 6 1 800] [energy 19.959880 ei 0.000 es 0.000 et 0.024 er 0.016] ------- [1:0 6:1 30 6] [0 0] 0 0
r 0.031246594 _1_ MAC  --- 0 ACK 38 [0 1 0 0] [energy 19.958347 ei 0.000 es 0.000 et 0.025 er 0.016] 
r 0.031848594 _1_ MAC  --- 0 RTS 44 [374 1 6 0] [energy 19.957994 ei 0.000 es 0.000 et 0.025 er 0.017] 
s 0.031858594 _1_ MAC  --- 0 CTS 38 [23a 6 0 0] [energy 19.957994 ei 0.000 es 0.000 et 0.025 er 0.017] 
r 0.032420018 _1_ MAC  --- 6 ack 40 [13a 1 6 800] [energy 19.956228 ei 0.000 es 0.000 et 0.027 er 0.017] ------- [6:1 1:0 30 1] [0 0] 1 0
s 0.032430018 _1_ MAC  --- 0 ACK 38 [0 6 0 0] [energy 19.956228 ei 0.000 es 0.000 et 0.027 er 0.017] 
r 0.032445018 _1_ AGT  --- 6 ack 40 [13a 1 6 800] [energy 19.954708 ei 0.000 es 0.000 et 0.028 er 0.017] ------- [6:1 1:0 30 1] [0 0] 1 0
s 0.032445018 _1_ AGT  --- 7 security 1040 [0 0 0 0] [energy 19.954708 ei 0.000 es 0.000 et 0.028 er 0.017] ------- [1:0 6:1 32 0] [1 0] 0 0
r 0.032445018 _1_ RTR  --- 7 security 1040 [0 0 0 0] [energy 19.954708 ei 0.000 es 0.000 et 0.028 er 0.017] ------- [1:0 6:1 32 0] [1 0] 0 0
s 0.032445018 _1_ AGT  --- 8 security 1040 [0 0 0 0] [energy 19.954708 ei 0.000 es 0.000 et 0.028 er 0.017] ------- [1:0 6:1 32 0] [2 0] 0 0
r 0.032445018 _1_ RTR  --- 8 security 1040 [0 0 0 0] [energy 19.954708 ei 0.000 es 0.000 et 0.028 er 0.017] ------- [1:0 6:1 32 0] [2 0] 0 0
s 0.032445018 _1_ RTR  --- 7 security 1040 [0 0 0 0] [energy 19.954708 ei 0.000 es 0.000 et 0.028 er 0.017] ------- [1:0 6:1 30 6] [1 0] 0 0
s 0.032445018 _1_ RTR  --- 8 security 1040 [0 0 0 0] [energy 19.954708 ei 0.000 es 0.000 et 0.028 er 0.017] ------- [1:0 6:1 30 6] [2 0] 0 0
r 0.033742927 _1_ MAC  --- 0 AODV 48 [0 ffffffff 5 800] [energy 19.953859 ei 0.000 es 0.000 et 0.028 er 0.018] ------- [5:255 -1:255 27 0] [0x2 4 1 [6 0] [3 4]] (REQUEST)
r 0.033767927 _1_ RTR  --- 0 AODV 48 [0 ffffffff 5 800] [energy 19.953859 ei 0.000 es 0.000 et 0.028 er 0.018] ------- [5:255 -1:255 27 0] [0x2 4 1 [6 0] [3 4]] (REQUEST)
s 0.033892927 _1_ MAC  --- 0 RTS 44 [64b 6 1 0] [energy 19.953859 ei 0.000 es 0.000 et 0.028 er 0.018] 
r 0.034560533 _1_ MAC  --- 0 CTS 38 [511 1 0 0] [energy 19.951794 ei 0.000 es 0.000 et 0.030 er 0.018] 
s 0.034570533 _1_ MAC  --- 7 security 1098 [13a 6 1 800] [energy 19.951794 ei 0.000 es 0.000 et 0.030 er 0.018] ------- [1:0 6:1 30 6] [1 0] 0 0
r 0.035859230 _1_ MAC  --- 0 ACK 38 [0 1 0 0] [energy 19.946625 ei 0.000 es 0.000 et 0.035 er 0.019] 
s 0.036109230 _1_ MAC  --- 0 RTS 44 [64b 6 1 0] [energy 19.946625 ei 0.000 es 0.000 et 0.035 er 0.019] 
r 0.036776836 _1_ MAC  --- 0 CTS 38 [511 1 0 0] [energy 19.944559 ei 0.000 es 0.000 et 0.037 er 0.019] 
s 0.036786836 _1_ MAC  --- 8 security 1098 [13a 6 1 800] [energy 19.944559 ei 0.000 es 0.000 et 0.037 er 0.019] ------- [1:0 6:1 30 6] [2 0] 0 0
r 0.038075532 _1_ MAC  --- 0 ACK 38 [0 1 0 0] [energy 19.939390 ei 0.000 es 0.000 et 0.041 er 0.019] 
r 0.038537532 _1_ MAC  --- 0 RTS 44 [374 1 6 0] [energy 19.939037 ei 0.000 es 0.000 et 0.041 er 0.019] 
s 0.038547532 _1_ MAC  --- 0 CTS 38 [23a 6 0 0] [energy 19.939037 ei 0.000 es 0.000 et 0.041 er 0.019] 
r 0.039108957 _1_ MAC  --- 9 ack 40 [13a 1 6 800] [energy 19.937271 ei 0.000 es 0.000 et 0.043 er 0.020] ------- [6:1 1:0 30 1] [1 0] 1 0
s 0.039118957 _1_ MAC  --- 0 ACK 38 [0 6 0 0] [energy 19.937271 ei 0.000 es 0.000 et 0.043 er 0.020] 
r 0.039133957 _1_ AGT  --- 9 ack 40 [13a 1 6 800] [energy 19.935751 ei 0.000 es 0.000 et 0.044 er 0.020] ------- [6:1 1:0 30 1] [1 0] 1 0
s 0.039133957 _1_ AGT  --- 11 security 1040 [0 0 0 0] [energy 19.935751 ei 0.000 es 0.000 et 0.044 er 0.020] ------- [1:0 6:1 32 0] [3 0] 0 0
r 0.039133957 _1_ RTR  --- 11 security 1040 [0 0 0 0] [energy 19.935751 ei 0.000 es 0.000 et 0.044 er 0.020] ------- [1:0 6:1 32 0] [3 0] 0 0
s 0.039133957 _1_ AGT  --- 12 security 1040 [0 0 0 0] [energy 19.935751 ei 0.000 es 0.000 et 0.044 er 0.020] ------- [1:0 6:1 32 0] [4 0] 0 0
r 0.039133957 _1_ RTR  --- 12 security 1040 [0 0 0 0] [energy 19.935751 ei 0.000 es 0.000 et 0.044 er 0.020] ------- [1:0 6:1 32 0] [4 0] 0 0
s 0.039133957 _1_ RTR  --- 11 security 1040 [0 0 0 0] [energy 19.935751 ei 0.000 es 0.000 et 0.044 er 0.020] ------- [1:0 6:1 30 6] [3 0] 0 0
s 0.039133957 _1_ RTR  --- 12 security 1040 [0 0 0 0] [energy 19.935751 ei 0.000 es 0.000 et 0.044 er 0.020] ------- [1:0 6:1 30 6] [4 0] 0 0
s 0.039812957 _1_ MAC  --- 0 RTS 44 [64b 6 1 0] [energy 19.935751 ei 0.000 es 0.000 et 0.044 er 0.020] 
r 0.040480562 _1_ MAC  --- 0 CTS 38 [511 1 0 0] [energy 19.933685 ei 0.000 es 0.000 et 0.046 er 0.020] 
s 0.040490562 _1_ MAC  --- 11 security 1098 [13a 6 1 800] [energy 19.933685 ei 0.000 es 0.000 et 0.046 er 0.020] ------- [1:0 6:1 30 6] [3 0] 0 0
r 0.041779259 _1_ MAC  --- 0 ACK 38 [0 1 0 0] [energy 19.928516 ei 0.000 es 0.000 et 0.051 er 0.020] 
s 0.041949259 _1_ MAC  --- 0 RTS 44 [64b 6 1 0] [energy 19.928516 ei 0.000 es 0.000 et 0.051 er 0.020] 
r 0.042616865 _1_ MAC  --- 0 CTS 38 [511 1 0 0] [energy 19.926451 ei 0.000 es 0.000 et 0.053 er 0.021] 
s 0.042626865 _1_ MAC  --- 12 security 1098 [13a 6 1 800] [energy 19.926451 ei 0.000 es 0.000 et 0.053 er 0.021] ------- [1:0 6:1 30 6] [4 0] 0 0
r 0.043915562 _1_ MAC  --- 0 ACK 38 [0 1 0 0] [energy 19.921281 ei 0.000 es 0.000 et 0.058 er 0.021] 
r 0.044457562 _1_ MAC  --- 0 RTS 44 [374 1 6 0] [energy 19.920928 ei 0.000 es 0.000 et 0.058 er 0.021] 
s 0.044467562 _1_ MAC  --- 0 CTS 38 [23a 6 0 0] [energy 19.920928 ei 0.000 es 0.000 et 0.058 er 0.021] 
r 0.045028986 _1_ MAC  --- 10 ack 40 [13a 1 6 800] [energy 19.919162 ei 0.000 es 0.000 et 0.059 er 0.022] ------- [6:1 1:0 30 1] [2 0] 1 0
s 0.045038986 _1_ MAC  --- 0 ACK 38 [0 6 0 0] [energy 19.919162 ei 0.000 es 0.000 et 0.059 er 0.022] 
r 0.045053986 _1_ AGT  --- 10 ack 40 [13a 1 6 800] [energy 19.917642 ei 0.000 es 0.000 et 0.061 er 0.022] ------- [6:1 1:0 30 1] [2 0] 1 0
s 0.045053986 _1_ AGT  --- 15 security 1040 [0 0 0 0] [energy 19.917642 ei 0.000 es 0.000 et 0.061 er 0.022] ------- [1:0 6:1 32 0] [5 0] 0 0
r 0.045053986 _1_ RTR  --- 15 security 1040 [0 0 0 0] [energy 19.917642 ei 0.000 es 0.000 et 0.061 er 0.022] ------- [1:0 6:1 32 0] [5 0] 0 0
s 0.045053986 _1_ AGT  --- 16 security 1040 [0 0 0 0] [energy 19.917642 ei 0.000 es 0.000 et 0.061 er 0.022] ------- [1:0 6:1 32 0] [6 0] 0 0
r 0.045053986 _1_ RTR  --- 16 security 1040 [0 0 0 0] [energy 19.917642 ei 0.000 es 0.000 et 0.061 er 0.022] ------- [1:0 6:1 32 0] [6 0] 0 0
s 0.045053986 _1_ RTR  --- 15 security 1040 [0 0 0 0] [energy 19.917642 ei 0.000 es 0.000 et 0.061 er 0.022] ------- [1:0 6:1 30 6] [5 0] 0 0
s 0.045053986 _1_ RTR  --- 16 security 1040 [0 0 0 0] [energy 19.917642 ei 0.000 es 0.000 et 0.061 er 0.022] ------- [1:0 6:1 30 6] [6 0] 0 0
r 0.045866592 _1_ MAC  --- 0 RTS 44 [374 1 6 0] [energy 19.917290 ei 0.000 es 0.000 et 0.061 er 0.022] 
s 0.045876592 _1_ MAC  --- 0 CTS 38 [23a 6 0 0] [energy 19.917290 ei 0.000 es 0.000 et 0.061 er 0.022] 
r 0.046438016 _1_ MAC  --- 13 ack 40 [13a 1 6 800] [energy 19.915524 ei 0.000 es 0.000 et 0.062 er 0.022] ------- [6:1 1:0 30 1] [3 0] 1 0
s 0.046448016 _1_ MAC  --- 0 ACK 38 [0 6 0 0] [energy 19.915524 ei 0.000 es 0.000 et 0.062 er 0.022] 
r 0.046463016 _1_ AGT  --- 13 ack 40 [13a 1 6 800] [energy 19.914004 ei 0.000 es 0.000 et 0.064 er 0.022] ------- [6:1 1:0 30 1] [3 0] 1 0
s 0.046463016 _1_ AGT  --- 17 security 1040 [0 0 0 0] [energy 19.914004 ei 0.000 es 0.000 et 0.064 er 0.022] ------- [1:0 6:1 32 0] [7 0] 0 0
r 0.046463016 _1_ RTR  --- 17 security 1040 [0 0 0 0] [energy 19.914004 ei 0.000 es 0.000 et 0.064 er 0.022] ------- [1:0 6:1 32 0] [7 0] 0 0
s 0.046463016 _1_ AGT  --- 18 security 1040 [0 0 0 0] [energy 19.914004 ei 0.000 es 0.000 et 0.064 er 0.022] ------- [1:0 6:1 32 0] [8 0] 0 0
r 0.046463016 _1_ RTR  --- 18 security 1040 [0 0 0 0] [energy 19.914004 ei 0.000 es 0.000 et 0.064 er 0.022] ------- [1:0 6:1 32 0] [8 0] 0 0
s 0.046463016 _1_ RTR  --- 17 security 1040 [0 0 0 0] [energy 19.914004 ei 0.000 es 0.000 et 0.064 er 0.022] ------- [1:0 6:1 30 6] [7 0] 0 0
s 0.046463016 _1_ RTR  --- 18 security 1040 [0 0 0 0] [energy 19.914004 ei 0.000 es 0.000 et 0.064 er 0.022] ------- [1:0 6:1 30 6] [8 0] 0 0
r 0.047245593 _1_ MAC  --- 0 RTS 44 [36b 1 0 0] [energy 19.913651 ei 0.000 es 0.000 et 0.064 er 0.022] 
s 0.047255593 _1_ MAC  --- 0 CTS 38 [231 0 0 0] [energy 19.913651 ei 0.000 es 0.000 et 0.064 er 0.022] 
r 0.047808264 _1_ MAC  --- 0 ARP 28 [13a 1 0 806] [energy 19.911894 ei 0.000 es 0.000 et 0.065 er 0.023] ------- [REPLY 0/0 1/1]
s 0.047818264 _1_ MAC  --- 0 ACK 38 [0 0 0 0] [energy 19.911894 ei 0.000 es 0.000 et 0.065 er 0.023] 
s 0.048552264 _1_ MAC  --- 0 RTS 44 [64b 6 1 0] [energy 19.910374 ei 0.000 es 0.000 et 0.067 er 0.023] 
r 0.049219870 _1_ MAC  --- 0 CTS 38 [511 1 0 0] [energy 19.908307 ei 0.000 es 0.000 et 0.069 er 0.023] 
s 0.049229870 _1_ MAC  --- 15 security 1098 [13a 6 1 800] [energy 19.908307 ei 0.000 es 0.000 et 0.069 er 0.023] ------- [1:0 6:1 30 6] [5 0] 0 0
r 0.050518567 _1_ MAC  --- 0 ACK 38 [0 1 0 0] [energy 19.903138 ei 0.000 es 0.000 et 0.073 er 0.023] 
r 0.051120567 _1_ MAC  --- 0 RTS 44 [374 1 6 0] [energy 19.902785 ei 0.000 es 0.000 et 0.073 er 0.024] 
s 0.051130567 _1_ MAC  --- 0 CTS 38 [23a 6 0 0] [energy 19.902785 ei 0.000 es 0.000 et 0.073 er 0.024] 
r 0.051691991 _1_ MAC  --- 19 ack 40 [13a 1 6 800] [energy 19.901019 ei 0.000 es 0.000 et 0.075 er 0.024] ------- [6:1 1:0 30 1] [5 0] 1 0
s 0.051701991 _1_ MAC  --- 0 ACK 38 [0 6 0 0] [energy 19.901019 ei 0.000 es 0.000 et 0.075 er 0.024] 
r 0.051716991 _1_ AGT  --- 19 ack 40 [13a 1 6 800] [energy 19.899499 ei 0.000 es 0.000 et 0.077 er 0.024] ------- [6:1 1:0 30 1] [5 0] 1 0
s 0.051716991 _1_ AGT  --- 20 security 1040 [0 0 0 0] [energy 19.899499 ei 0.000 es 0.000 et 0.077 er 0.024] ------- [1:0 6:1 32 0] [9 0] 0 0
r 0.051716991 _1_ RTR  --- 20 security 1040 [0 0 0 0] [energy 19.899499 ei 0.000 es 0.000 et 0.077 er 0.024] ------- [1:0 6:1 32 0] [9 0] 0 0
s 0.051716991 _1_ AGT  --- 21 security 1040 [0 0 0 0] [energy 19.899499 ei 0.000 es 0.000 et 0.077 er 0.024] ------- [1:0 6:1 32 0] [10 0] 0 0
r 0.051716991 _1_ RTR  --- 21 security 1040 [0 0 0 0] [energy 19.899499 ei 0.000 es 0.000 et 0.077 er 0.024] ------- [1:0 6:1 32 0] [10 0] 0 0
s 0.051716991 _1_ AGT  --- 22 security 1040 [0 0 0 0] [energy 19.899499 ei 0.000 es 0.000 et 0.077 er 0.024] ------- [1:0 6:1 32 0] [11 0] 0 0
r 0.051716991 _1_ RTR  --- 22 security 1040 [0 0 0 0] [energy 19.899499 ei 0.000 es 0.000 et 0.077 er 0.024] ------- [1:0 6:1 32 0] [11 0] 0 0
s 0.051716991 _1_ RTR  --- 20 security 1040 [0 0 0 0] [energy 19.899499 ei 0.000 es 0.000 et 0.077 er 0.024] ------- [1:0 6:1 30 6] [9 0] 0 0
s 0.051716991 _1_ RTR  --- 21 security 1040 [0 0 0 0] [energy 19.899499 ei 0.000 es 0.000 et 0.077 er 0.024] ------- [1:0 6:1 30 6] [10 0] 0 0
s 0.051716991 _1_ RTR  --- 22 security 1040 [0 0 0 0] [energy 19.899499 ei 0.000 es 0.000 et 0.077 er 0.024] ------- [1:0 6:1 30 6] [11 0] 0 0
s 0.052415991 _1_ MAC  --- 0 RTS 44 [377 0 1 0] [energy 19.899499 ei 0.000 es 0.000 et 0.077 er 0.024] 
r 0.053083571 _1_ MAC  --- 0 CTS 38 [23d 1 0 0] [energy 19.897433 ei 0.000 es 0.000 et 0.078 er 0.024] 
s 0.053093571 _1_ MAC  --- 0 AODV 102 [13a 0 1 800] [energy 19.897433 ei 0.000 es 0.000 et 0.078 er 0.024] ------- [6:255 3:255 29 0] [0x4 2 [6 8] 10.000000] (REPLY)
r 0.053657878 _1_ MAC  --- 0 ACK 38 [0 1 0 0] [energy 19.895885 ei 0.000 es 0.000 et 0.080 er 0.025] 
s 0.054007878 _1_ MAC  --- 0 RTS 44 [64b 6 1 0] [energy 19.895885 ei 0.000 es 0.000 et 0.080 er 0.025] 
r 0.055137878 _1_ MAC  --- 0 RTS 44 [374 1 0 0] [energy 19.893435 ei 0.000 es 0.000 et 0.081 er 0.025] 
s 0.055147878 _1_ MAC  --- 0 CTS 38 [23a 0 0 0] [energy 19.893435 ei 0.000 es 0.000 et 0.081 er 0.025] 
r 0.055709277 _1_ MAC  --- 0 security 40 [13a 1 0 800] [energy 19.891669 ei 0.000 es 0.000 et 0.083 er 0.025] ------- [0:0 6:0 30 1] [0 0] 1 0
s 0.055719277 _1_ MAC  --- 0 ACK 38 [0 0 0 0] [energy 19.891669 ei 0.000 es 0.000 et 0.083 er 0.025] 
r 0.055734277 _1_ RTR  --- 0 security 40 [13a 1 0 800] [energy 19.890149 ei 0.000 es 0.000 et 0.084 er 0.025] ------- [0:0 6:0 30 1] [0 0] 1 0
f 0.055734277 _1_ RTR  --- 0 security 40 [13a 1 0 800] [energy 19.890149 ei 0.000 es 0.000 et 0.084 er 0.025] ------- [0:0 6:0 29 6] [0 0] 1 0
s 0.056393277 _1_ MAC  --- 0 RTS 44 [64b 6 1 0] [energy 19.890149 ei 0.000 es 0.000 et 0.084 er 0.025] 
r 0.057060882 _1_ MAC  --- 0 CTS 38 [511 1 0 0] [energy 19.888083 ei 0.000 es 0.000 et 0.086 er 0.026] 
s 0.057070882 _1_ MAC  --- 16 security 1098 [13a 6 1 800] [energy 19.888083 ei 0.000 es 0.000 et 0.086 er 0.026] ------- [1:0 6:1 30 6] [6 0] 0 0
r 0.058359579 _1_ MAC  --- 0 ACK 38 [0 1 0 0] [energy 19.882913 ei 0.000 es 0.000 et 0.091 er 0.026] 
s 0.058569579 _1_ MAC  --- 0 RTS 44 [64b 6 1 0] [energy 19.882913 ei 0.000 es 0.000 et 0.091 er 0.026] 
r 0.059237185 _1_ MAC  --- 0 CTS 38 [511 1 0 0] [energy 19.880848 ei 0.000 es 0.000 et 0.093 er 0.026] 
s 0.059247185 _1_ MAC  --- 17 security 1098 [13a 6 1 800] [energy 19.880848 ei 0.000 es 0.000 et 0.093 er 0.026] ------- [1:0 6:1 30 6] [7 0] 0 0
r 0.060535882 _1_ MAC  --- 0 ACK 38 [0 1 0 0] [energy 19.875678 ei 0.000 es 0.000 et 0.098 er 0.027] 
r 0.060957882 _1_ MAC  --- 0 RTS 44 [374 1 6 0] [energy 19.875326 ei 0.000 es 0.000 et 0.098 er 0.027] 
s 0.060967882 _1_ MAC  --- 0 CTS 38 [23a 6 0 0] [energy 19.875326 ei 0.000 es 0.000 et 0.098 er 0.027] 
r 0.061529306 _1_ MAC  --- 23 ack 40 [13a 1 6 800] [energy 19.873560 ei 0.000 es 0.000 et 0.099 er 0.027] ------- [6:1 1:0 30 1] [6 0] 1 0
s 0.061539306 _1_ MAC  --- 0 ACK 38 [0 6 0 0] [energy 19.873560 ei 0.000 es 0.000 et 0.099 er 0.027] 
r 0.061554306 _1_ AGT  --- 23 ack 40 [13a 1 6 800] [energy 19.872040 ei 0.000 es 0.000 et 0.101 er 0.027] ------- [6:1 1:0 30 1] [6 0] 1 0
s 0.061554306 _1_ AGT  --- 25 security 1040 [0 0 0 0] [energy 19.872040 ei 0.000 es 0.000 et 0.101 er 0.027] ------- [1:0 6:1 32 0] [12 0] 0 0
r 0.061554306 _1_ RTR  --- 25 security 1040 [0 0 0 0] [energy 19.872040 ei 0.000 es 0.000 et 0.101 er 0.027] ------- [1:0 6:1 32 0] [12 0] 0 0
s 0.061554306 _1_ AGT  --- 26 security 1040 [0 0 0 0] [energy 19.872040 ei 0.000 es 0.000 et 0.101 er 0.027] ------- [1:0 6:1 32 0] [13 0] 0 0
r 0.061554306 _1_ RTR  --- 26 security 1040 [0 0 0 0] [energy 19.872040 ei 0.000 es 0.000 et 0.101 er 0.027] ------- [1:0 6:1 32 0] [13 0] 0 0
s 0.061554306 _1_ RTR  --- 25 security 1040 [0 0 0 0] [energy 19.872040 ei 0.000 es 0.000 et 0.101 er 0.027] ------- [1:0 6:1 30 6] [12 0] 0 0
s 0.061554306 _1_ RTR  --- 26 security 1040 [0 0 0 0] [energy 19.872040 ei 0.000 es 0.000 et 0.101 er 0.027] ------- [1:0 6:1 30 6] [13 0] 0 0
r 0.062646912 _1_ MAC  --- 0 RTS 44 [374 1 6 0] [energy 19.871560 ei 0.000 es 0.000 et 0.101 er 0.028] 
s 0.063226468 _1_ MAC  --- 0 RTS 44 [64b 6 1 0] [energy 19.871560 ei 0.000 es 0.000 et 0.101 er 0.028] 
r 0.063894074 _1_ MAC  --- 0 CTS 38 [511 1 0 0] [energy 19.869494 ei 0.000 es 0.000 et 0.102 er 0.028] 
s 0.063904074 _1_ MAC  --- 18 security 1098 [13a 6 1 800] [energy 19.869494 ei 0.000 es 0.000 et 0.102 er 0.028] ------- [1:0 6:1 30 6] [8 0] 0 0
r 0.065192771 _1_ MAC  --- 0 ACK 38 [0 1 0 0] [energy 19.864324 ei 0.000 es 0.000 et 0.107 er 0.028] 
s 0.065462771 _1_ MAC  --- 0 RTS 44 [64b 6 1 0] [energy 19.864324 ei 0.000 es 0.000 et 0.107 er 0.028] 
r 0.066130377 _1_ MAC  --- 0 CTS 38 [511 1 0 0] [energy 19.862259 ei 0.000 es 0.000 et 0.109 er 0.029] 
s 0.066140377 _1_ MAC  --- 20 security 1098 [13a 6 1 800] [energy 19.862259 ei 0.000 es 0.000 et 0.109 er 0.029] ------- [1:0 6:1 30 6] [9 0] 0 0
r 0.067429073 _1_ MAC  --- 0 ACK 38 [0 1 0 0] [energy 19.857089 ei 0.000 es 0.000 et 0.114 er 0.029] 
s 0.067479073 _1_ MAC  --- 0 RTS 44 [64b 6 1 0] [energy 19.857089 ei 0.000 es 0.000 et 0.114 er 0.029] 
r 0.068146679 _1_ MAC  --- 0 CTS 38 [511 1 0 0] [energy 19.855025 ei 0.000 es 0.000 et 0.116 er 0.029] 
s 0.068156679 _1_ MAC  --- 21 security 1098 [13a 6 1 800] [energy 19.855025 ei 0.000 es 0.000 et 0.116 er 0.029] ------- [1:0 6:1 30 6] [10 0] 0 0
r 0.069445376 _1_ MAC  --- 0 ACK 38 [0 1 0 0] [energy 19.849856 ei 0.000 es 0.000 et 0.120 er 0.030] 
s 0.069635376 _1_ MAC  --- 0 RTS 44 [64b 6 1 0] [energy 19.849856 ei 0.000 es 0.000 et 0.120 er 0.030] 
r 0.070302982 _1_ MAC  --- 0 CTS 38 [511 1 0 0] [energy 19.847791 ei 0.000 es 0.000 et 0.122 er 0.030] 
s 0.070312982 _1_ MAC  --- 22 security 1098 [13a 6 1 800] [energy 19.847791 ei 0.000 es 0.000 et 0.122 er 0.030] ------- [1:0 6:1 30 6] [11 0] 0 0
r 0.071601678 _1_ MAC  --- 0 ACK 38 [0 1 0 0] [energy 19.842621 ei 0.000 es 0.000 et 0.127 er 0.030] 
s 0.072011678 _1_ MAC  --- 0 RTS 44 [374 6 1 0] [energy 19.842621 ei 0.000 es 0.000 et 0.127 er 0.030] 
r 0.072679284 _1_ MAC  --- 0 CTS 38 [23a 1 0 0] [energy 19.840555 ei 0.000 es 0.000 et 0.129 er 0.031] 
s 0.072689284 _1_ MAC  --- 0 security 98 [13a 6 1 800] [energy 19.840555 ei 0.000 es 0.000 et 0.129 er 0.031] ------- [0:0 6:0 29 6] [0 0] 1 0
r 0.073250708 _1_ MAC  --- 0 ACK 38 [0 1 0 0] [energy 19.839022 ei 0.000 es 0.000 et 0.130 er 0.031] 
r 0.073872708 _1_ MAC  --- 0 RTS 44 [374 1 6 0] [energy 19.838668 ei 0.000 es 0.000 et 0.130 er 0.031] 
s 0.073882708 _1_ MAC  --- 0 CTS 38 [23a 6 0 0] [energy 19.838668 ei 0.000 es 0.000 et 0.130 er 0.031] 
r 0.074444132 _1_ MAC  --- 24 ack 40 [13a 1 6 800] [energy 19.836902 ei 0.000 es 0.000 et 0.132 er 0.031] ------- [6:1 1:0 30 1] [7 0] 1 0
s 0.074454132 _1_ MAC  --- 0 ACK 38 [0 6 0 0] [energy 19.836902 ei 0.000 es 0.000 et 0.132 er 0.031] 
r 0.074469132 _1_ AGT  --- 24 ack 40 [13a 1 6 800] [energy 19.835382 ei 0.000 es 0.000 et 0.133 er 0.031] ------- [6:1 1:0 30 1] [7 0] 1 0
s 0.074469132 _1_ AGT  --- 32 security 1040 [0 0 0 0] [energy 19.835382 ei 0.000 es 0.000 et 0.133 er 0.031] ------- [1:0 6:1 32 0] [14 0] 0 0
r 0.074469132 _1_ RTR  --- 32 security 1040 [0 0 0 0] [energy 19.835382 ei 0.000 es 0.000 et 0.133 er 0.031] ------- [1:0 6:1 32 0] [14 0] 0 0
s 0.074469132 _1_ AGT  --- 33 security 1040 [0 0 0 0] [energy 19.835382 ei 0.000 es 0.000 et 0.133 er 0.031] ------- [1:0 6:1 32 0] [15 0] 0 0
r 0.074469132 _1_ RTR  --- 33 security 1040 [0 0 0 0] [energy 19.835382 ei 0.000 es 0.000 et 0.133 er 0.031] ------- [1:0 6:1 32 0] [15 0] 0 0
s 0.074469132 _1_ RTR  --- 32 security 1040 [0 0 0 0] [energy 19.835382 ei 0.000 es 0.000 et 0.133 er 0.031] ------- [1:0 6:1 30 6] [14 0] 0 0
s 0.074469132 _1_ RTR  --- 33 security 1040 [0 0 0 0] [energy 19.835382 ei 0.000 es 0.000 et 0.133 er 0.031] ------- [1:0 6:1 30 6] [15 0] 0 0
s 0.074908132 _1_ MAC  --- 0 RTS 44 [64b 6 1 0] [energy 19.835382 ei 0.000 es 0.000 et 0.133 er 0.031] 
r 0.075575738 _1_ MAC  --- 0 CTS 38 [511 1 0 0] [energy 19.833318 ei 0.000 es 0.000 et 0.135 er 0.032] 
s 0.075585738 _1_ MAC  --- 25 security 1098 [13a 6 1 800] [energy 19.833318 ei 0.000 es 0.000 et 0.135 er 0.032] ------- [1:0 6:1 30 6] [12 0] 0 0
r 0.076874435 _1_ MAC  --- 0 ACK 38 [0 1 0 0] [energy 19.828148 ei 0.000 es 0.000 et 0.140 er 0.032] 
D 0.077596435 _1_ MAC  COL 0 RTS 44 [374 1 6 0] [energy 19.827567 ei 0.000 es 0.000 et 0.140 er 0.033] 
r 0.078436435 _1_ MAC  --- 0 RTS 44 [374 1 6 0] [energy 19.826981 ei 0.000 es 0.000 et 0.140 er 0.033] 
s 0.079441991 _1_ MAC  --- 0 RTS 44 [64b 6 1 0] [energy 19.826981 ei 0.000 es 0.000 et 0.140 er 0.033] 
r 0.080109597 _1_ MAC  --- 0 CTS 38 [511 1 0 0] [energy 19.824913 ei 0.000 es 0.000 et 0.142 er 0.033] 
s 0.080119597 _1_ MAC  --- 26 security 1098 [13a 6 1 800] [energy 19.824913 ei 0.000 es 0.000 et 0.142 er 0.033] ------- [1:0 6:1 30 6] [13 0] 0 0
r 0.081408294 _1_ MAC  --- 0 ACK 38 [0 1 0 0] [energy 19.819743 ei 0.000 es 0.000 et 0.146 er 0.034] 
s 0.081558294 _1_ MAC  --- 0 RTS 44 [64b 6 1 0] [energy 19.819743 ei 0.000 es 0.000 et 0.146 er 0.034] 
r 0.082225900 _1_ MAC  --- 0 CTS 38 [511 1 0 0] [energy 19.817679 ei 0.000 es 0.000 et 0.148 er 0.034] 
s 0.082235900 _1_ MAC  --- 32 security 1098 [13a 6 1 800] [energy 19.817679 ei 0.000 es 0.000 et 0.148 er 0.034] ------- [1:0 6:1 30 6] [14 0] 0 0
r 0.083524596 _1_ MAC  --- 0 ACK 38 [0 1 0 0] [energy 19.812509 ei 0.000 es 0.000 et 0.153 er 0.034] 
s 0.083574596 _1_ MAC  --- 0 RTS 44 [64b 6 1 0] [energy 19.812509 ei 0.000 es 0.000 et 0.153 er 0.034] 
r 0.084242202 _1_ MAC  --- 0 CTS 38 [511 1 0 0] [energy 19.810445 ei 0.000 es 0.000 et 0.155 er 0.035] 
s 0.084252202 _1_ MAC  --- 33 security 1098 [13a 6 1 800] [energy 19.810445 ei 0.000 es 0.000 et 0.155 er 0.035] ------- [1:0 6:1 30 6] [15 0] 0 0
r 0.085540899 _1_ MAC  --- 0 ACK 38 [0 1 0 0] [energy 19.805275 ei 0.000 es 0.000 et 0.160 er 0.035] 
D 0.090015044 _1_ MAC  COL 0 RTS 44 [374 1 6 0] [energy 19.802180 ei 0.000 es 0.000 et 0.160 er 0.038] 
r 0.092412425 _1_ MAC  --- 0 RTS 44 [374 1 0 0] [energy 19.800618 ei 0.000 es 0.000 et 0.160 er 0.040] 
s 0.092422425 _1_ MAC  --- 0 CTS 38 [23a 0 0 0] [energy 19.800618 ei 0.000 es 0.000 et 0.160 er 0.040] 
r 0.092983823 _1_ MAC  --- 3 security 40 [13a 1 0 800] [energy 19.798852 ei 0.000 es 0.000 et 0.161 er 0.040] ------- [3:0 6:3 29 1] [0 0] 2 0
s 0.092993823 _1_ MAC  --- 0 ACK 38 [0 0 0 0] [energy 19.798852 ei 0.000 es 0.000 et 0.161 er 0.040] 
r 0.093008823 _1_ RTR  --- 3 security 40 [13a 1 0 800] [energy 19.797332 ei 0.000 es 0.000 et 0.163 er 0.040] ------- [3:0 6:3 29 1] [0 0] 2 0
f 0.093008823 _1_ RTR  --- 3 security 40 [13a 1 0 800] [energy 19.797332 ei 0.000 es 0.000 et 0.163 er 0.040] ------- [3:0 6:3 28 6] [0 0] 2 0
s 0.093607823 _1_ MAC  --- 0 RTS 44 [374 6 1 0] [energy 19.797332 ei 0.000 es 0.000 et 0.163 er 0.040] 
r 0.094275429 _1_ MAC  --- 0 CTS 38 [23a 1 0 0] [energy 19.795267 ei 0.000 es 0.000 et 0.164 er 0.040] 
s 0.094285429 _1_ MAC  --- 3 security 98 [13a 6 1 800] [energy 19.795267 ei 0.000 es 0.000 et 0.164 er 0.040] ------- [3:0 6:3 28 6] [0 0] 2 0
r 0.094846853 _1_ MAC  --- 0 ACK 38 [0 1 0 0] [energy 19.793734 ei 0.000 es 0.000 et 0.166 er 0.041] 
r 0.096388853 _1_ MAC  --- 0 RTS 44 [374 1 6 0] [energy 19.793376 ei 0.000 es 0.000 et 0.166 er 0.041] 
s 0.096398853 _1_ MAC  --- 0 CTS 38 [23a 6 0 0] [energy 19.793376 ei 0.000 es 0.000 et 0.166 er 0.041] 
r 0.096960277 _1_ MAC  --- 27 ack 40 [13a 1 6 800] [energy 19.791610 ei 0.000 es 0.000 et 0.167 er 0.041] ------- [6:1 1:0 30 1] [8 0] 1 0
s 0.096970277 _1_ MAC  --- 0 ACK 38 [0 6 0 0] [energy 19.791610 ei 0.000 es 0.000 et 0.167 er 0.041] 
r 0.096985277 _1_ AGT  --- 27 ack 40 [13a 1 6 800] [energy 19.790090 ei 0.000 es 0.000 et 0.169 er 0.041] ------- [6:1 1:0 30 1] [8 0] 1 0
s 0.096985277 _1_ AGT  --- 39 security 1040 [0 0 0 0] [energy 19.790090 ei 0.000 es 0.000 et 0.169 er 0.041] ------- [1:0 6:1 32 0] [16 0] 0 0
r 0.096985277 _1_ RTR  --- 39 security 1040 [0 0 0 0] [energy 19.790090 ei 0.000 es 0.000 et 0.169 er 0.041] ------- [1:0 6:1 32 0] [16 0] 0 0
s 0.096985277 _1_ AGT  --- 40 security 1040 [0 0 0 0] [energy 19.790090 ei 0.000 es 0.000 et 0.169 er 0.041] ------- [1:0 6:1 32 0] [17 0] 0 0
r 0.096985277 _1_ RTR  --- 40 security 1040 [0 0 0 0] [energy 19.790090 ei 0.000 es 0.000 et 0.169 er 0.041] ------- [1:0 6:1 32 0] [17 0] 0 0
s 0.096985277 _1_ RTR  --- 39 security 1040 [0 0 0 0] [energy 19.790090 ei 0.000 es 0.000 et 0.169 er 0.041] ------- [1:0 6:1 30 6] [16 0] 0 0
s 0.096985277 _1_ RTR  --- 40 security 1040 [0 0 0 0] [energy 19.790090 ei 0.000 es 0.000 et 0.169 er 0.041] ------- [1:0 6:1 30 6] [17 0] 0 0
s 0.097704277 _1_ MAC  --- 0 RTS 44 [64b 6 1 0] [energy 19.790090 ei 0.000 es 0.000 et 0.169 er 0.041] 
r 0.098371883 _1_ MAC  --- 0 CTS 38 [511 1 0 0] [energy 19.788023 ei 0.000 es 0.000 et 0.170 er 0.041] 
s 0.098381883 _1_ MAC  --- 39 security 1098 [13a 6 1 800] [energy 19.788023 ei 0.000 es 0.000 et 0.170 er 0.041] ------- [1:0 6:1 30 6] [16 0] 0 0
r 0.099670580 _1_ MAC  --- 0 ACK 38 [0 1 0 0] [energy 19.782854 ei 0.000 es 0.000 et 0.175 er 0.042] 
r 0.100132580 _1_ MAC  --- 0 RTS 44 [374 1 6 0] [energy 19.782501 ei 0.000 es 0.000 et 0.175 er 0.042] 
s 0.100142580 _1_ MAC  --- 0 CTS 38 [23a 6 0 0] [energy 19.782501 ei 0.000 es 0.000 et 0.175 er 0.042] 
r 0.100704004 _1_ MAC  --- 34 ack 40 [13a 1 6 800] [energy 19.780735 ei 0.000 es 0.000 et 0.177 er 0.042] ------- [6:1 1:0 30 1] [12 0] 1 0
s 0.100714004 _1_ MAC  --- 0 ACK 38 [0 6 0 0] [energy 19.780735 ei 0.000 es 0.000 et 0.177 er 0.042] 
r 0.100729004 _1_ AGT  --- 34 ack 40 [13a 1 6 800] [energy 19.779215 ei 0.000 es 0.000 et 0.178 er 0.042] ------- [6:1 1:0 30 1] [12 0] 1 0
s 0.100729004 _1_ AGT  --- 42 security 1040 [0 0 0 0] [energy 19.779215 ei 0.000 es 0.000 et 0.178 er 0.042] ------- [1:0 6:1 32 0] [18 0] 0 0
r 0.100729004 _1_ RTR  --- 42 security 1040 [0 0 0 0] [energy 19.779215 ei 0.000 es 0.000 et 0.178 er 0.042] ------- [1:0 6:1 32 0] [18 0] 0 0